# vtk DataFile Version 3.0
vtk output
ASCII
DATASET UNSTRUCTURED_GRID
POINTS 1453 double
7.946517e-01	0.000000e+00	-1.530741e-03	7.831153e-01	0.000000e+00	-3.065658e-03	7.710400e-01	0.000000e+00	-4.643956e-03	7.582172e-01	0.000000e+00	-6.295509e-03	7.444748e-01	0.000000e+00	-8.032660e-03	7.296761e-01	0.000000e+00	-9.851548e-03	7.137195e-01	0.000000e+00	-1.174357e-02	6.965354e-01	0.000000e+00	-1.369736e-02	6.780858e-01	0.000000e+00	-1.570178e-02	6.583613e-01	0.000000e+00	-1.774771e-02	6.373794e-01	0.000000e+00	-1.982829e-02	6.151822e-01	0.000000e+00	-2.193862e-02	5.918337e-01	0.000000e+00	-2.407179e-02	5.674178e-01	0.000000e+00	-2.621525e-02	5.420350e-01	0.000000e+00	-2.834652e-02	5.158014e-01	0.000000e+00	-3.043072e-02	4.888459e-01	0.000000e+00	-3.242037e-02	4.613090e-01	0.000000e+00	-3.425873e-02	4.333414e-01	0.000000e+00	-3.588550e-02	4.051027e-01	0.000000e+00	-3.724472e-02	3.767596e-01	0.000000e+00	-3.829269e-02	3.484836e-01	0.000000e+00	-3.900327e-02	3.204482e-01	0.000000e+00	-3.937103e-02	2.928263e-01	0.000000e+00	-3.940996e-02	2.657869e-01	0.000000e+00	-3.914874e-02	2.394933e-01	0.000000e+00	-3.862372e-02	2.141001e-01	0.000000e+00	-3.787265e-02	8.322953e-01	1.324931e-01	-1.456502e-03	8.213598e-01	1.326372e-01	-2.916814e-03	8.099141e-01	1.327848e-01	-4.418232e-03	7.977605e-01	1.329390e-01	-5.989151e-03	7.847357e-01	1.331006e-01	-7.641298e-03	7.707100e-01	1.332694e-01	-9.370958e-03	7.555866e-01	1.334441e-01	-1.116993e-02	7.392994e-01	1.336239e-01	-1.302737e-02	7.218122e-01	1.338077e-01	-1.493270e-02	7.031161e-01	1.339940e-01	-1.687721e-02	6.832277e-01	1.341826e-01	-1.885437e-02	6.621873e-01	1.343725e-01	-2.085952e-02	6.400557e-01	1.345632e-01	-2.288609e-02	6.169122e-01	1.347534e-01	-2.492214e-02	5.928522e-01	1.349409e-01	-2.694633e-02	5.679844e-01	1.351223e-01	-2.892556e-02	5.424300e-01	1.352937e-01	-3.081477e-02	5.163202e-01	1.354496e-01	-3.256013e-02	4.897956e-01	1.355850e-01	-3.410447e-02	4.630053e-01	1.356950e-01	-3.539473e-02	4.361055e-01	1.357759e-01	-3.638951e-02	4.092572e-01	1.358259e-01	-3.706407e-02	3.826244e-01	1.358450e-01	-3.741327e-02	3.563712e-01	1.358347e-01	-3.745041e-02	3.306589e-01	1.357981e-01	-3.720269e-02	3.056432e-01	1.357386e-01	-3.670461e-02	2.814728e-01	1.356601e-01	-3.599196e-02	8.692324e-01	2.624591e-01	-1.383700e-03	8.588863e-01	2.627443e-01	-2.770854e-03	8.480582e-01	2.630368e-01	-4.196882e-03	8.365607e-01	2.633422e-01	-5.688735e-03	8.242398e-01	2.636623e-01	-7.257521e-03	8.109723e-01	2.639965e-01	-8.899687e-03	7.966663e-01	2.643429e-01	-1.060741e-02	7.812588e-01	2.646992e-01	-1.237039e-02	7.647156e-01	2.650629e-01	-1.417854e-02	7.470280e-01	2.654322e-01	-1.602360e-02	7.282122e-01	2.658057e-01	-1.789935e-02	7.083061e-01	2.661819e-01	-1.980137e-02	6.873679e-01	2.665597e-01	-2.172341e-02	6.654722e-01	2.669363e-01	-2.365415e-02	6.427093e-01	2.673078e-01	-2.557335e-02	6.191812e-01	2.676675e-01	-2.744966e-02	5.950008e-01	2.680069e-01	-2.924038e-02	5.702905e-01	2.683160e-01	-3.089455e-02	5.451811e-01	2.685842e-01	-3.235806e-02	5.198113e-01	2.688022e-01	-3.358070e-02	4.943267e-01	2.689626e-01	-3.452332e-02	4.688783e-01	2.690618e-01	-3.516255e-02	4.436209e-01	2.690996e-01	-3.549355e-02	4.187099e-01	2.690795e-01	-3.552894e-02	3.942988e-01	2.690070e-01	-3.529447e-02	3.705365e-01	2.688896e-01	-3.482281e-02	3.475651e-01	2.687343e-01	-3.414780e-02	9.048702e-01	3.876756e-01	-1.313657e-03	8.950915e-01	3.880969e-01	-2.630424e-03	8.848573e-01	3.885290e-01	-3.983916e-03	8.739913e-01	3.889799e-01	-5.399699e-03	8.623477e-01	3.894530e-01	-6.888278e-03	8.498097e-01	3.899468e-01	-8.446257e-03	8.362899e-01	3.904586e-01	-1.006619e-02	8.217289e-01	3.909849e-01	-1.173828e-02	8.060940e-01	3.915224e-01	-1.345293e-02	7.893769e-01	3.920681e-01	-1.520230e-02	7.715931e-01	3.926198e-01	-1.698048e-02	7.527787e-01	3.931759e-01	-1.878326e-02	7.329887e-01	3.937342e-01	-2.060472e-02	7.122941e-01	3.942911e-01	-2.243411e-02	6.907793e-01	3.948400e-01	-2.425229e-02	6.685402e-01	3.953716e-01	-2.602955e-02	6.456821e-01	3.958734e-01	-2.772549e-02	6.223186e-01	3.963305e-01	-2.929191e-02	5.985711e-01	3.967272e-01	-3.067763e-02	5.745682e-01	3.970497e-01	-3.183520e-02	5.504456e-01	3.972874e-01	-3.272764e-02	5.263448e-01	3.974344e-01	-3.333286e-02	5.024112e-01	3.974910e-01	-3.364634e-02	4.787919e-01	3.974617e-01	-3.368004e-02	4.556330e-01	3.973553e-01	-3.345831e-02	4.330770e-01	3.971824e-01	-3.301205e-02	4.112596e-01	3.969536e-01	-3.237327e-02	9.386150e-01	5.062884e-01	-1.247280e-03	9.293734e-01	5.068386e-01	-2.497346e-03	9.197020e-01	5.074030e-01	-3.782099e-03	9.094342e-01	5.079922e-01	-5.125789e-03	8.984320e-01	5.086101e-01	-6.538356e-03	8.865849e-01	5.092551e-01	-8.016555e-03	8.738101e-01	5.099236e-01	-9.553283e-03	8.600511e-01	5.106111e-01	-1.113922e-02	8.452766e-01	5.113130e-01	-1.276526e-02	8.294789e-01	5.120260e-01	-1.442393e-02	8.126728e-01	5.127467e-01	-1.610964e-02	7.948926e-01	5.134730e-01	-1.781836e-02	7.761907e-01	5.142024e-01	-1.954448e-02	7.566337e-01	5.149297e-01	-2.127782e-02	7.363018e-01	5.156468e-01	-2.300024e-02	7.152842e-01	5.163414e-01	-2.468361e-02	6.936791e-01	5.169969e-01	-2.628972e-02	6.715918e-01	5.175941e-01	-2.777296e-02	6.491347e-01	5.181124e-01	-2.908495e-02	6.264273e-01	5.185337e-01	-3.018084e-02	6.035955e-01	5.188442e-01	-3.102570e-02	5.807717e-01	5.190366e-01	-3.159869e-02	5.580925e-01	5.191104e-01	-3.189557e-02	5.356974e-01	5.190725e-01	-3.192765e-02	5.137254e-01	5.189337e-01	-3.171801e-02	4.923126e-01	5.187081e-01	-3.129584e-02	4.715888e-01	5.184095e-01	-3.069140e-02	9.700057e-01	6.167734e-01	-1.185372e-03	9.612653e-01	6.174438e-01	-2.373226e-03	9.521189e-01	6.181312e-01	-3.593870e-03	9.424089e-01	6.188490e-01	-4.870322e-03	9.320052e-01	6.196018e-01	-6.212003e-03	9.208028e-01	6.203873e-01	-7.615790e-03	9.087228e-01	6.212017e-01	-9.074926e-03	8.957118e-01	6.220391e-01	-1.058053e-02	8.817397e-01	6.228943e-01	-1.212394e-02	8.667996e-01	6.237625e-01	-1.369803e-02	8.509054e-01	6.246405e-01	-1.529749e-02	8.340898e-01	6.255254e-01	-1.691850e-02	8.164025e-01	6.264137e-01	-1.855573e-02	7.979069e-01	6.272996e-01	-2.019950e-02	7.786777e-01	6.281730e-01	-2.183264e-02	7.587992e-01	6.290190e-01	-2.342848e-02	7.383624e-01	6.298173e-01	-2.495082e-02	7.174653e-01	6.305445e-01	-2.635652e-02	6.962116e-01	6.311756e-01	-2.759976e-02	6.747119e-01	6.316887e-01	-2.863815e-02	6.530836e-01	6.320667e-01	-2.943865e-02	6.314503e-01	6.323007e-01	-2.998160e-02	6.099408e-01	6.323905e-01	-3.026300e-02	5.886870e-01	6.323439e-01	-3.029360e-02	5.678217e-01	6.321747e-01	-3.009522e-02	5.474745e-01	6.318995e-01	-2.969551e-02	5.277704e-01	6.315353e-01	-2.912310e-02	9.987455e-01	7.179276e-01	-1.128693e-03	9.904643e-01	7.187078e-01	-2.259590e-03	9.817987e-01	7.195081e-01	-3.421543e-03	9.726001e-01	7.203433e-01	-4.636440e-03	9.627446e-01	7.212194e-01	-5.913225e-03	9.521326e-01	7.221337e-01	-7.248904e-03	9.406891e-01	7.230813e-01	-8.637009e-03	9.283632e-01	7.240560e-01	-1.006908e-02	9.151263e-01	7.250511e-01	-1.153684e-02	9.009717e-01	7.260617e-01	-1.303353e-02	8.859126e-01	7.270834e-01	-1.455406e-02	8.699804e-01	7.281133e-01	-1.609480e-02	8.532222e-01	7.291472e-01	-1.765066e-02	8.356981e-01	7.301781e-01	-1.921247e-02	8.174789e-01	7.311945e-01	-2.076390e-02	7.986433e-01	7.321790e-01	-2.227963e-02	7.792762e-01	7.331082e-01	-2.372533e-02	7.594684e-01	7.339543e-01	-2.506005e-02	7.393165e-01	7.346889e-01	-2.624040e-02	7.189225e-01	7.352860e-01	-2.722616e-02	6.983959e-01	7.357258e-01	-2.798608e-02	6.778524e-01	7.359981e-01	-2.850153e-02	6.574134e-01	7.361025e-01	-2.876877e-02	6.372043e-01	7.360481e-01	-2.879800e-02	6.173517e-01	7.358509e-01	-2.860993e-02	5.979800e-01	7.355306e-01	-2.823077e-02	5.792092e-01	7.351066e-01	-2.768767e-02	1.024634e+00	8.088885e-01	-1.077812e-03	1.016765e+00	8.097675e-01	-2.157579e-03	1.008531e+00	8.106692e-01	-3.266838e-03	9.997907e-01	8.116103e-01	-4.426473e-03	9.904273e-01	8.125974e-01	-5.644996e-03	9.803452e-01	8.136277e-01	-6.919521e-03	9.694730e-01	8.146955e-01	-8.243853e-03	9.577619e-01	8.157936e-01	-9.609896e-03	9.451848e-01	8.169151e-01	-1.100974e-02	9.317351e-01	8.180538e-01	-1.243691e-02	9.174257e-01	8.192050e-01	-1.388656e-02	9.022865e-01	8.203655e-01	-1.535521e-02	8.863624e-01	8.215304e-01	-1.683801e-02	8.697108e-01	8.226921e-01	-1.832621e-02	8.523983e-01	8.238375e-01	-1.980424e-02	8.344992e-01	8.249472e-01	-2.124802e-02	8.160927e-01	8.259942e-01	-2.262488e-02	7.972633e-01	8.269478e-01	-2.389585e-02	7.781006e-01	8.277758e-01	-2.501969e-02	7.586996e-01	8.284486e-01	-2.595819e-02	7.391623e-01	8.289446e-01	-2.668164e-02	7.195975e-01	8.292517e-01	-2.717239e-02	7.001202e-01	8.293696e-01	-2.742690e-02	6.808495e-01	8.293086e-01	-2.745490e-02	6.619066e-01	8.290869e-01	-2.727609e-02	6.434113e-01	8.287263e-01	-2.691539e-02	6.254787e-01	8.282490e-01	-2.639860e-02	1.047480e+00	8.891588e-01	-1.032910e-03	1.039974e+00	8.901250e-01	-2.067555e-03	1.032121e+00	8.911162e-01	-3.130316e-03	1.023786e+00	8.921507e-01	-4.241186e-03	1.014856e+00	8.932358e-01	-5.408291e-03	1.005242e+00	8.943684e-01	-6.628849e-03	9.948739e-01	8.955421e-01	-7.896903e-03	9.837053e-01	8.967494e-01	-9.204676e-03	9.717105e-01	8.979821e-01	-1.054458e-02	9.588831e-01	8.992338e-01	-1.191042e-02	9.452352e-01	9.004995e-01	-1.329751e-02	9.307957e-01	9.017752e-01	-1.470254e-02	9.156077e-01	9.030559e-01	-1.612086e-02	8.997259e-01	9.043330e-01	-1.754410e-02	8.832137e-01	9.055922e-01	-1.895736e-02	8.661407e-01	9.068120e-01	-2.033766e-02	8.485820e-01	9.079632e-01	-2.165376e-02	8.306160e-01	9.090117e-01	-2.286848e-02	8.123263e-01	9.099220e-01	-2.394245e-02	7.938017e-01	9.106620e-01	-2.483923e-02	7.751376e-01	9.112073e-01	-2.553052e-02	7.564366e-01	9.115452e-01	-2.599947e-02	7.378077e-01	9.116750e-01	-2.624275e-02	7.193651e-01	9.116082e-01	-2.626965e-02	7.012250e-01	9.113648e-01	-2.609901e-02	6.835029e-01	9.109686e-01	-2.575459e-02	6.663101e-01	9.104443e-01	-2.526103e-02	1.067233e+00	9.585683e-01	-9.940819e-04	1.060042e+00	9.596101e-01	-1.989707e-03	1.052518e+00	9.606788e-01	-3.012255e-03	1.044532e+00	9.617943e-01	-4.080946e-03	1.035978e+00	9.629642e-01	-5.20
[...]
POINT_DATA 1453

SCALARS Pressure_Coefficient double 1
LOOKUP_TABLE default
1.880134e-01	1.409995e-01	1.002257e-01	6.259255e-02	2.684126e-02	-6.928100e-03	-3.806669e-02	-6.633374e-02	-9.180638e-02	-1.147611e-01	-1.358388e-01	-1.556746e-01	-1.750337e-01	-1.942510e-01	-2.129518e-01	-2.302102e-01	-2.452839e-01	-2.564136e-01	-2.613146e-01	-2.581125e-01	-2.466303e-01	-2.282415e-01	-2.050368e-01	-1.790919e-01	-1.520890e-01	-1.252363e-01	-9.919666e-02	2.000985e-01	1.625593e-01	1.275978e-01	9.508565e-02	6.350426e-02	3.275187e-02	3.330767e-03	-2.444535e-02	-5.043755e-02	-7.460202e-02	-9.720340e-02	-1.185890e-01	-1.394313e-01	-1.602634e-01	-1.812723e-01	-2.022097e-01	-2.229070e-01	-2.421287e-01	-2.573544e-01	-2.656351e-01	-2.652289e-01	-2.563379e-01	-2.405842e-01	-2.202036e-01	-1.973500e-01	-1.738688e-01	-1.510739e-01	2.079516e-01	1.711901e-01	1.380545e-01	1.073679e-01	7.764978e-02	4.871209e-02	2.097677e-02	-5.327936e-03	-3.015482e-02	-5.356757e-02	-7.586652e-02	-9.742203e-02	-1.188723e-01	-1.407290e-01	-1.632509e-01	-1.863835e-01	-2.102463e-01	-2.341691e-01	-2.557485e-01	-2.715420e-01	-2.787197e-01	-2.764637e-01	-2.659002e-01	-2.493416e-01	-2.291955e-01	-2.077194e-01	-1.865399e-01	2.087161e-01	1.730612e-01	1.409438e-01	1.112439e-01	8.249813e-02	5.453430e-02	2.776446e-02	2.438414e-03	-2.141457e-02	-4.392334e-02	-6.545000e-02	-8.646533e-02	-1.076590e-01	-1.295874e-01	-1.525206e-01	-1.764001e-01	-2.013050e-01	-2.268685e-01	-2.510528e-01	-2.705914e-01	-2.822752e-01	-2.845611e-01	-2.779188e-01	-2.643783e-01	-2.463648e-01	-2.262353e-01	-2.058430e-01	2.096770e-01	1.747062e-01	1.431056e-01	1.138135e-01	8.542670e-02	5.779555e-02	3.134960e-02	6.362446e-03	-1.712168e-02	-3.923832e-02	-6.038053e-02	-8.105221e-02	-1.020050e-01	-1.238690e-01	-1.469207e-01	-1.711360e-01	-1.964801e-01	-2.226624e-01	-2.477430e-01	-2.687683e-01	-2.825598e-01	-2.873034e-01	-2.831059e-01	-2.716482e-01	-2.552528e-01	-2.363363e-01	-2.167652e-01	2.112735e-01	1.767885e-01	1.454699e-01	1.163574e-01	8.809816e-02	6.055784e-02	3.416817e-02	9.245897e-03	-1.418189e-02	-3.622130e-02	-5.728793e-02	-7.794033e-02	-9.894425e-02	-1.209520e-01	-1.442978e-01	-1.689510e-01	-1.947846e-01	-2.214981e-01	-2.472252e-01	-2.690207e-01	-2.837697e-01	-2.896007e-01	-2.865089e-01	-2.760377e-01	-2.604628e-01	-2.421026e-01	-2.229567e-01	2.138502e-01	1.797676e-01	1.486060e-01	1.195629e-01	9.131571e-02	6.376014e-02	3.733356e-02	1.237347e-02	-1.106791e-02	-3.312451e-02	-5.423212e-02	-7.497759e-02	-9.616917e-02	-1.184990e-01	-1.423164e-01	-1.676290e-01	-1.942755e-01	-2.218586e-01	-2.486189e-01	-2.715388e-01	-2.873678e-01	-2.940734e-01	-2.915518e-01	-2.813634e-01	-2.658508e-01	-2.474080e-01	-2.281459e-01	2.173171e-01	1.835006e-01	1.523581e-01	1.232591e-01	9.494901e-02	6.735180e-02	4.089979e-02	1.595217e-02	-7.440360e-03	-2.942262e-02	-5.044584e-02	-7.114894e-02	-9.238074e-02	-1.148801e-01	-1.390548e-01	-1.649804e-01	-1.924991e-01	-2.212342e-01	-2.495903e-01	-2.744716e-01	-2.924162e-01	-3.009492e-01	-2.996108e-01	-2.898870e-01	-2.742614e-01	-2.553263e-01	-2.354201e-01	2.204324e-01	1.867967e-01	1.555338e-01	1.262853e-01	9.789175e-02	7.028822e-02	4.394963e-02	1.919220e-02	-3.890230e-03	-2.548501e-02	-4.609158e-02	-6.636701e-02	-8.721783e-02	-1.094185e-01	-1.334545e-01	-1.594615e-01	-1.873478e-01	-2.169071e-01	-2.468212e-01	-2.742133e-01	-2.955341e-01	-3.077418e-01	-3.096067e-01	-3.020131e-01	-2.873590e-01	-2.683469e-01	-2.477254e-01	2.148906e-01	1.821466e-01	1.518406e-01	1.235368e-01	9.608399e-02	6.943765e-02	4.404892e-02	2.028054e-02	-1.800633e-03	-2.239669e-02	-4.199630e-02	-6.128153e-02	-8.116186e-02	-1.024447e-01	-1.256193e-01	-1.508519e-01	-1.781461e-01	-2.073941e-01	-2.377648e-01	-2.668852e-01	-2.916080e-01	-3.088147e-01	-3.164291e-01	-3.142064e-01	-3.036123e-01	-2.870116e-01	-2.671524e-01	1.961411e-01	1.657128e-01	1.383423e-01	1.128716e-01	8.801083e-02	6.371376e-02	4.046318e-02	1.863232e-02	-1.680075e-03	-2.063094e-02	-3.869210e-02	-5.652302e-02	-7.498231e-02	-9.484246e-02	-1.165954e-01	-1.403445e-01	-1.661193e-01	-1.938367e-01	-2.229675e-01	-2.517064e-01	-2.777391e-01	-2.986518e-01	-3.124578e-01	-3.180824e-01	-3.156120e-01	-3.061307e-01	-2.915133e-01	1.833835e-01	1.540271e-01	1.282576e-01	1.044813e-01	8.132479e-02	5.873754e-02	3.718422e-02	1.700911e-02	-1.696578e-03	-1.909025e-02	-3.562424e-02	-5.194853e-02	-6.888614e-02	-8.718862e-02	-1.073030e-01	-1.292903e-01	-1.531505e-01	-1.787593e-01	-2.056398e-01	-2.323039e-01	-2.569594e-01	-2.780799e-01	-2.946872e-01	-3.062884e-01	-3.127164e-01	-3.138392e-01	-3.100609e-01	1.817400e-01	1.516005e-01	1.254029e-01	1.016334e-01	7.886106e-02	5.695737e-02	3.630030e-02	1.714814e-02	-4.773596e-04	-1.677318e-02	-3.218274e-02	-4.728617e-02	-6.288606e-02	-7.971893e-02	-9.818589e-02	-1.183533e-01	-1.402066e-01	-1.636139e-01	-1.881935e-01	-2.125349e-01	-2.349984e-01	-2.541331e-01	-2.695606e-01	-2.818498e-01	-2.919783e-01	-3.006539e-01	-3.080574e-01	1.775273e-01	1.482017e-01	1.229705e-01	1.002716e-01	7.858040e-02	5.764332e-02	3.796616e-02	1.977381e-02	2.875311e-03	-1.268099e-02	-2.732321e-02	-4.113348e-02	-5.513214e-02	-7.014248e-02	-8.667010e-02	-1.050633e-01	-1.250168e-01	-1.465316e-01	-1.695735e-01	-1.923076e-01	-2.134856e-01	-2.317584e-01	-2.462727e-01	-2.572394e-01	-2.664000e-01	-2.758077e-01	-2.876525e-01	1.660336e-01	1.370785e-01	1.143024e-01	9.439286e-02	7.475863e-02	5.600478e-02	3.886654e-02	2.342251e-02	8.731358e-03	-5.680313e-03	-2.104077e-02	-3.108733e-02	-2.110944e-02	-3.856199e-02	-6.502057e-02	-8.925892e-02	-1.105755e-01	-1.292979e-01	-1.468905e-01	-1.635270e-01	-1.771994e-01	-1.872233e-01	-1.948273e-01	-2.003278e-01	-2.056838e-01	-2.129076e-01	-2.200606e-01	1.766555e-01	1.365294e-01	1.204806e-01	1.081241e-01	9.513771e-02	7.875742e-02	5.974828e-02	4.266659e-02	2.678162e-02	1.180453e-02	-7.291958e-03	-2.289056e-02	-2.759581e-02	-2.987696e-02	-3.849618e-02	-5.203757e-02	-7.019375e-02	-9.154421e-02	-1.133732e-01	-1.326914e-01	-1.476842e-01	-1.621198e-01	-1.738403e-01	-1.772420e-01	-1.804443e-01	-1.847655e-01	-1.929573e-01	-7.455081e-02	-5.142815e-02	-2.925307e-02	-7.060577e-03	1.608969e-02	4.075679e-02	6.714021e-02	9.480352e-02	1.144015e-01	7.307602e-02	6.442540e-02	1.691055e-01	3.793751e-01	6.373206e-01	8.539475e-01	1.023423e+00	1.004426e+00	8.280478e-01	5.455006e-01	2.125656e-01	-1.118336e-01	-3.518126e-01	-4.356889e-01	-3.721058e-01	-2.883164e-01	-2.798705e-01	-2.953559e-01	-3.144263e-01	-3.335006e-01	-3.512148e-01	-3.679489e-01	-3.843884e-01	-4.014803e-01	-4.198577e-01	-4.401163e-01	-4.624153e-01	-4.865457e-01	-5.118751e-01	-5.372047e-01	-5.607856e-01	-5.811208e-01	-6.008380e-01	-6.357114e-01	-6.945432e-01	-7.442054e-01	-6.230774e-01	-2.825991e-01	-2.589564e-01	-2.056230e-01	-1.655072e-01	-1.297014e-01	-9.500103e-02	-6.031174e-02	-2.497680e-02	1.087466e-02	4.667712e-02	8.167939e-02	1.154263e-01	1.475954e-01	1.786316e-01	2.108820e-01	-1.300310e-01	-1.112701e-01	-9.434571e-02	-7.837538e-02	-6.228042e-02	-4.506518e-02	-2.642865e-02	-7.465194e-03	1.393666e-03	-5.312674e-02	-7.495309e-02	3.463543e-02	2.622208e-01	5.134785e-01	7.547094e-01	9.029172e-01	8.879050e-01	6.514420e-01	3.083983e-01	-4.666681e-02	-4.291521e-01	-7.542668e-01	-9.297117e-01	-8.113486e-01	-4.959029e-01	-4.550047e-01	-4.583664e-01	-4.587685e-01	-4.586294e-01	-4.599561e-01	-4.622774e-01	-4.667869e-01	-4.746542e-01	-4.865904e-01	-5.027372e-01	-5.225254e-01	-5.449679e-01	-5.687074e-01	-5.920300e-01	-6.132775e-01	-6.323097e-01	-6.548316e-01	-6.799639e-01	-6.602474e-01	-4.906282e-01	-2.867229e-01	-2.007094e-01	-1.706338e-01	-1.340110e-01	-1.032192e-01	-7.281423e-02	-4.244511e-02	-1.168846e-02	1.936962e-02	5.036450e-02	8.075565e-02	1.100518e-01	1.381255e-01	1.652379e-01	1.887768e-01	2.195505e-01	-1.669455e-01	-1.496743e-01	-1.342613e-01	-1.198054e-01	-1.048670e-01	-8.824251e-02	-6.972509e-02	-5.020664e-02	-4.127138e-02	-9.535899e-02	-1.146245e-01	2.494755e-03	2.359784e-01	4.997199e-01	7.470257e-01	8.971947e-01	8.783950e-01	6.258957e-01	2.645760e-01	-1.070105e-01	-5.021787e-01	-8.445404e-01	-1.065370e+00	-1.119101e+00	-9.524647e-01	-6.389864e-01	-5.142652e-01	-5.336696e-01	-5.418263e-01	-5.396557e-01	-5.356236e-01	-5.337492e-01	-5.361305e-01	-5.437628e-01	-5.569093e-01	-5.748487e-01	-5.962306e-01	-6.193096e-01	-6.423667e-01	-6.642265e-01	-6.870923e-01	-7.074923e-01	-6.704611e-01	-4.439043e-01	-2.505389e-01	-1.832454e-01	-1.557729e-01	-1.248381e-01	-9.627992e-02	-6.866637e-02	-4.084210e-02	-1.272275e-02	1.580009e-02	4.448004e-02	7.290099e-02	1.005252e-01	1.269058e-01	1.519355e-01	1.757114e-01	1.969157e-01	2.252675e-01	-1.866974e-01	-1.695505e-01	-1.541098e-01	-1.393006e-01	-1.238043e-01	-1.064419e-01	-8.710446e-02	-6.669259e-02	-5.649987e-02	-1.098224e-01	-1.275730e-01	-1.000770e-02	2.214475e-01	4.852697e-01	7.324419e-01	8.804584e-01	8.572225e-01	5.938019e-01	2.233434e-01	-1.550200e-01	-5.518032e-01	-8.929678e-01	-1.114778e+00	-1.193906e+00	-1.141286e+00	-1.009497e+00	-7.568162e-01	-5.439345e-01	-5.571157e-01	-5.762026e-01	-5.816172e-01	-5.803698e-01	-5.818501e-01	-5.884904e-01	-6.007627e-01	-6.178782e-01	-6.384813e-01	-6.612484e-01	-6.854417e-01	-7.118733e-01	-7.341521e-01	-6.971447e-01	-4.415337e-01	-2.421840e-01	-1.847950e-01	-1.584824e-01	-1.314150e-01	-1.023115e-01	-7.544125e-02	-4.882604e-02	-2.235219e-02	4.284037e-03	3.113931e-02	5.801316e-02	8.451508e-02	1.101444e-01	1.345133e-01	1.575321e-01	1.792937e-01	1.986254e-01	2.255053e-01	-1.981977e-01	-1.813947e-01	-1.659902e-01	-1.510129e-01	-1.349889e-01	-1.170419e-01	-9.695222e-02	-7.563478e-02	-6.438346e-02	-1.173342e-01	-1.331711e-01	-1.324021e-02	2.194654e-01	4.844911e-01	7.331951e-01	8.808735e-01	8.555243e-01	5.829720e-01	2.051024e-01	-1.785386e-01	-5.775458e-01	-9.181474e-01	-1.139997e+00	-1.220322e+00	-1.178850e+00	-1.119816e+00	-1.040857e+00	-8.507562e-01	-6.100981e-01	-5.739343e-01	-5.944040e-01	-6.095600e-01	-6.160951e-01	-6.231961e-01	-6.347186e-01	-6.507871e-01	-6.709776e-01	-6.953707e-01	-7.249493e-01	-7.513030e-01	-7.251020e-01	-4.698547e-01	-2.478368e-01	-1.944621e-01	-1.709188e-01	-1.434561e-01	-1.148912e-01	-8.755442e-02	-6.154324e-02	-3.602320e-02	-1.065812e-02	1.486988e-02	4.061082e-02	6.637390e-02	9.176183e-02	1.162856e-01	1.395729e-01	1.615538e-01	1.823361e-01	2.008779e-01	2.265054e-01	-2.047480e-01	-1.881055e-01	-1.727777e-01	-1.576252e-01	-1.413369e-01	-1.228855e-01	-1.023017e-01	-8.031254e-02	-6.833358e-02	-1.214069e-01	-1.363344e-01	-1.442168e-02	2.187719e-01	4.837097e-01	7.326620e-01	8.797793e-01	8.524715e-01	5.743595e-01	1.910321e-01	-1.950328e-01	-5.952858e-01	-9.352916e-01	-1.157489e+00	-1.238817e+00	-1.198041e+00	-1.143141e+00	-1.103084e+00	-1.053968e+00	-9.181485e-01	-6.987840e-01	-5.895022e-01	-6.035562e-01	-6.274475e-01	-6.434912e-01	-6.567963e-01	-6.737500e-01	-6.974766e-01	-7.289757e-01	-7.581980e-01	-7.389516e-01	-5.034259e-01	-2.611086e-01	-2.044517e-01	-1.870436e-01	-1.606470e-01	-1.320665e-01	-1.045019e-01	-7.830022e-02	-5.304165e-02	-2.831271e-02	-3.660533e-03	2.120403e-02	4.633333e-02	7.151990e-02	9.638388e-02	1.204261e-01	1.432873e-01	1.649189e-01	1.854704e-01	2.040179e-01	2.286095e-01	-2.097742e-01	-1.929829e-01	-1.774197e-01	-1.618809e-01	-1.451443e-01	-1.262410e-01	-1.050590e-01	-8.228331e-02	-6.966216e-02	-1.231009e-01	-1.379593e-01	-1.423746e-02	2.192763e-01	4.829599e-01	7.305076e-01	8.755540e-01	8.453154e-01	5.652564e-01	1.779346e-01	-2.079302e-01	-6.084180e-01	-9.481349e-01	-1.170605e+00	-1.252354e+00	-1.213203e+00	-1.159375e+00	-1.119395e+00	-1.089952e+00	-1.056555e+00	-9.624132e-01	-7.719681e-01	-6.200673e-01	-6.126863e-01	-6.383316e-01	-6.651664e-01	-6.940651e-01	-7.273533e-01	-7.545245e-01	-7.283407e-01	-5.111876e-01	-2.746860e-01	-2.129853e-01	-2.045272e-01	-1.816191e-01	-1.531837e-01	-1.253113e-01	-9.841575e-02	-7.266172e-02	-4.786326e-02	-2.361562e-02	5.842005e-04	2.503578e-02	4.983593e-02	7.479839e-02	9.953900e-02	1.235568e-01	1.464858e-01	1.682877e-01	1.891819e-01	2.083549e-01	2.320478e-01	-2.163833e-01	-1.988823e-01	-1.826032e-01	-1.663938e-01	-1.489754e-01	-1.292576e-01	-1.072222e-01	-8.346866e-02	-7.013495e-02	-1.239652e-01	-1.392249e-01	-1.388164e-02	2.198204e-01	4.817518e-01	7.260704e-01	8.703691e-01	8.339742e-01	5.566586e-01	1.654111e-01	-2.182006e-01	-6.184761e-01	-9.581122e-01	-1.180656e+00	-1.262321e+00	-1.224313e+00	-1.172850e+00	-1.133965e+00	-1.102694e+00	-1.079175e+00	-1.054160e+00	-9.855270e-01	-8.212364e-01	-6.599980e-01	-6.287739e-01	-6.638536e-01	-7.088153e-01	-7.313796e-01	-6.860607e-01	-4.767974e-01	-2.797602e-01	-2.215062e-01	-2.229197e-01	-2.063930e-01	-1.776357e-01	-1.489598e-01	-1.211057e-01	-9.429053e-02	-6.883429e-02	-4.451961e-02	-2.082527e-02	2.840709e-03	2.686653e-02	5.140751e-02	7.631434e-02	1.012319e-01	1.256363e-01	1.491272e-01	1.716821e-01	1.936260e-01	2.143339e-01	2.371069e-01	-2.275245e-01	-2.087733e-01	-1.911475e-01	-1.736456e-01	-1.550600e-01	-1.342125e-01	-1.111295e-01	-8.612752e-02	-7.173219e-02	-1.257339e-01	-1.420451e-01	-1.525621e-02	2.196723e-01	4.795797e-01	7.209454e-01	8.657132e-01	8.068207e-01	5.477273e-01	1.553612e-01	-2.258788e-01	-6.258258e-01	-9.659172e-01	-1.188807e+00	-1.270090e+00	-1.232670e+00	-1.183333e+00	-1.146134e+00	-1.115905e+00	-1.089681e+00	-1.068163e+00	-1.046942e+00	-9.952571e-01	-8.654922e-01	-7.242099e-01	-6.742384e-01	-6.544016e-01	-5.853010e-01	-4.088624e-01	-2.717311e-01	-2.315662e-01	-2.411675e-01	-2.327434e-01	-2.038894e-01	-1.735132e-01	-1.447039e-01	-1.169852e-01	-9.079281e-02	-6.626478e-02	-4.304831e-02	-2.052748e-02	1.993985e-03	2.499160e-02	4.875211e-02	7.325094e-02	9.821479e-02	1.231734e-01	1.477146e-01	1.718567e-01	1.961725e-01	2.203457e-01	2.429568e-01	-2.464658e-01	-2.262638e-01	-2.067677e-01	-1.871266e-01	-1.664818e-01	-1.438346e-01	-1.190333e-01	-9.229593e-02	-7.660603e-02	-1.302839e-01	-1.481663e-01	-2.001160e-02	2.165478e-01	4.757480e-01	7.151701e-01	8.640062e-01	7.582443e-01	5.384335e-01	1.473784e-01	-2.320692e-01	-6.314328e-01	-9.720853e-01	-1.195620e+00	-1.276344e+00	-1.239178e+00	-1.191525e+00	-1.155383e+00	-1.126249e+00	-1.100528e+00	-1.076759e+00	-1.059193e+00	-1.049432e+00	-1.010622e+00	-8.650931e-01	-6.176307e-01	-4.393284e-01	-3.387983e-01	-2.568849e-01	-2.383812e-01	-2.474704e-01	-2.445774e-01	-2.204310e-01	-1.911546e-01	-1.632153e-01	-1.359135e-01	-1.096248e-01	-8.478584e-02	-6.147593e-02	-3.940787e-02	-1.800815e-02	3.345555e-03	2.510235e-02	4.751797e-02	7.066962e-02	9.422896e-02	1.179243e-01	1.414029e-01	1.647518e-01	1.885833e-01	2.126514e-01	2.363828e-01	-2.737131e-01	-2.542065e-01	-2.335942e-01	-2.117141e-01	-1.880564e-01	-1.623605e-01	-1.347053e-01	-1.054001e-01	-8.771502e-02	-1.403633e-01	-1.595039e-01	-2.994431e-02	2.085266e-01	4.687743e-01	7.080120e-01	8.622469e-01	7.442988e-01	5.304511e-01	1.409430e-01	-2.373733e-01	-6.360159e-01	-9.772740e-01	-1.201255e+00	-1.281311e+00	-1.243940e+00	-1.197494e+00	-1.162347e+00	-1.135134e+00	-1.113482e+00	-1.097146e+00	-1.087430e+00	-1.058182e+00	-9.013626e-01	-6.266538e-01	-4.501829e-01	-3.584294e-01	-2.932604e-01	-2.525534e-01	-2.412319e-01	-2.332761e-01	-2.172484e-01	-1.954618e-01	-1.721852e-01	-1.475440e-01	-1.223758e-01	-9.768725e-02	-7.398632e-02	-5.145136e-02	-2.986182e-02	-8.869046e-03	1.187660e-02	3.261599e-02	5.332897e-02	7.397638e-02	9.420736e-02	1.137395e-01	1.324062e-01	1.502770e-01	1.674841e-01	1.833773e-01	2.092237e-01	-3.016577e-01	-2.891043e-01	-2.724106e-01	-2.512351e-01	-2.259029e-01	-1.966680e-01	-1.646444e-01	-1.309625e-01	-1.095939e-01	-1.602081e-01	-1.790847e-01	-4.685841e-02	1.945392e-01	4.572251e-01	6.980615e-01	8.562599e-01	7.319911e-01	5.221071e-01	1.349299e-01	-2.426432e-01	-6.400826e-01	-9.815960e-01	-1.205741e+00	-1.285166e+00	-1.248352e+00	-1.205163e+00	-1.175170e+00	-1.155809e+00	-1.144852e+00	-1.135969e+00	-1.081720e+00	-8.252782e-01	-5.828671e-01	-5.031850e-01	-4.133031e-01	-3.354136e-01	-2.767340e-01	-2.449112e-01	-2.323011e-01	-2.215337e-01	-2.068290e-01	-1.879200e-01	-1.655119e-01	-1.407687e-01	-1.155203e-01	-9.092719e-02	-6.753868e-02	-4.537950e-02	-2.420238e-02	-3.695319e-03	1.642421e-02	3.634066e-02	5.609818e-02	7.537662e-02	9.381376e-02	1.111289e-01	1.271384e-01	1.418207e-01	1.551515e-01	1.666048e-01	1.928997e-01	-3.132671e-01	-3.147186e-01	-3.104218e-01	-2.986109e-01	-2.788268e-01	-2.513588e-01	-2.175607e-01	-1.794788e-01	-1.529369e-01	-1.996785e-01	-2.148528e-01	-7.620510e-02	1.712940e-01	4.380965e-01	6.828068e-01	8.436092e-01	7.193880e-01	5.119340e-01	1.278397e-01	-2.490536e-01	-6.443635e-01	-9.864639e-01	-1.212088e+00	-1.293815e+00	-1.263503e+00	-1.230339e+00	-1.210422e+00	-1.197947e+00	-1.182779e+00	-1.119825e+00	-8.643439e-01	-6.073294e-01	-5.130256e-01	-4.173617e-01	-3.127698e-01	-2.652125e-01	-2.448606e-01	-2.411568e-01	-2.389744e-01	-2.296065e-01	-2.132920e-01	-1.918179e-01	-1.673516e-01	-1.418466e-01	-1.168371e-01	-9.308331e-02	-7.087860e-02	-5.015332e-02	-3.057724e-02	-1.158660e-02	7.353006e-03	2.662229e-02	4.611612e-02	6.574778e-02	8.515356e-02	1.038953e-01	1.216621e-01	1.383620e-01	1.540687e-01	1.682507e-01	1.940867e-01	-3.021410e-01	-3.167089e-01	-3.284906e-01	-3.332167e-01	-3.283242e-01	-3.130670e-01	-2.874059e-01	-2.528417e-01	-2.263369e-01	-2.718972e-01	-2.819143e-01	-1.321684e-01	1.281534e-01	4.049754e-01	6.569565e-01	8.199276e-01	7.025687e-01	4.985691e-01	1.174265e-01	-2.603128e-01	-6.560499e-01	-1.003355e+00	-1.233570e+00	-1.320286e+00	-1.298009e+00	-1.267477e+00	-1.238703e+00	-1.201023e+00	-1.120244e+00	-8.971579e-01	-6.307940e-01	-5.005779e-01	-3.947581e-01	-2.998945e-01	-2.719218e-01	-2.767380e-01	-2.753161e-01	-2.713789e-01	-2.600111e-01	-2.412965e-01	-2.177244e-01	-1.925792e-01	-1.669014e-01	-1.421354e-01	-1.189735e-01	-9.861685e-02	-7.999811e-02	-6.233780e-02	-4.547880e-02	-2.843829e-02	-1.073004e-02	6.928926e-03	2.482325e-02	4.324952e-02	6.199218e-02	8.086202e-02	9.987418e-02	1.191846e-01	1.393109e-01	1.594756e-01	1.902259e-01	-2.331469e-01	-2.540251e-01	-2.786767e-01	-3.027019e-01	-3.211767e-01	-3.329346e-01	-3.371699e-01	-3.341933e-01	-3.254029e-01	-3.736716e-01	-3.877025e-01	-2.400450e-01	2.588139e-02	3.257166e-01	5.973460e-01	7.624542e-01	6.680832e-01	4.663029e-01	7.313627e-02	-3.276022e-01	-7.360899e-01	-1.081663e+00	-1.302572e+00	-1.381891e+00	-1.358045e+00	-1.288326e+00	-1.210115e+00	-1.117295e+00	-1.014805e+00	-8.377063e-01	-5.966249e-01	-4.318069e-01	-3.626774e-01	-3.567762e-01	-3.668896e-01	-3.577935e-01	-3.427178e-01	-3.296097e-01	-3.117001e-01	-2.876478e-01	-2.610655e-01	-2.343999e-01	-2.056650e-01	-1.771323e-01	-1.489141e-01	-1.175024e-01	-8.449451e-02	-6.269598e-02	-6.377058e-02	-4.631002e-02	-2.890514e-02	-1.309277e-02	3.481766e-03	1.952348e-02	3.537663e-02	5.158705e-02	6.802279e-02	8.588714e-02	1.058355e-01	1.271439e-01	1.747294e-01	-2.058169e-01	-2.204905e-01	-2.395485e-01	-2.638332e-01	-2.833625e-01	-3.016179e-01	-3.028266e-01	-2.945008e-01	-2.941984e-01	-3.145557e-01	-3.019241e-01	-1.712534e-01	5.898255e-02	3.108059e-01	5.332915e-01	6.707523e-01	6.485014e-01	3.724902e-01	4.473625e-02	-2.653049e-01	-5.739704e-01	-8.555409e-01	-1.031369e+00	-1.071336e+00	-1.021762e+00	-9.358431e-01	-8.555040e-01	-7.869955e-01	-7.097994e-01	-5.978583e-01	-4.388810e-01	-3.445669e-01	-3.392089e-01	-3.416320e-01	-3.323025e-01	-3.218468e-01	-3.178279e-01	-3.195131e-01	-3.154843e-01	-3.060922e-01	-2.915346e-01	-2.744090e-01	-2.569693e-01	-2.370387e-01	-2.228080e-01	-2.104588e-01	-1.993112e-01	-1.882893e-01	-1.758771e-01	-1.521256e-01	-1.205770e-01	-9.154078e-02	-6.431244e-02	-3.997690e-02	-1.660354e-02	1.825994e-03	1.928160e-02	3.655295e-02	6.004223e-02	9.092173e-02	1.360479e-01	-3.144998e-01	-3.324147e-01	-3.856601e-01	-4.529847e-01	-5.029633e-01	-5.301085e-01	-5.576796e-01	-5.725913e-01	-6.249680e-01	-7.171049e-01	-7.428232e-01	-6.778798e-01	-5.075919e-01	-2.820641e-01	3.804566e-02	4.084225e-01	9.165634e-01	-3.013237e-01	-2.949062e-01	-2.893048e-01	-2.878432e-01	-2.768531e-01	-2.657304e-01	-2.521052e-01	-2.377665e-01	-2.224579e-01	-2.066366e-01	-1.865402e-01	-1.662846e-01	-1.464193e-01	-1.262304e-01	-1.035719e-01	-7.749646e-02	-5.482553e-02	-4.326389e-02	-3.630456e-02	-3.246594e-02	-3.329205e-02	-4.240485e-02	-4.385043e-02	-4.540287e-02	-5.529613e-02	-6.887345e-02	-1.180531e-01	-1.998