# vtk DataFile Version 4.2
Surface Flow Output (Case 0)
ASCII
DATASET UNSTRUCTURED_GRID
POINTS 324 float
0.997371 0.000149676 0 0.997208 0.000158623 0 0.997035 0.000168103 0 
0.996851 0.000178144 0 0.996655 0.000188775 0 0.996445 0.000200027 0 
0.996223 0.000211932 0 0.995985 0.000224521 0 0.995732 0.000237828 0 
0.995463 0.000251888 0 0.995176 0.000266737 0 0.99487 0.000282412 0 
0.994544 0.000298949 0 0.994197 0.000316389 0 0.993828 0.000334771 0 
0.993434 0.000354136 0 0.993015 0.000374527 0 0.992568 0.000395986 0 
0.992093 0.000418547 0 0.991587 0.000442242 0 0.991048 0.000467099 0 
0.990474 0.000493143 0 0.989863 0.000520395 0 0.989213 0.000548867 0 
0.988521 0.000578566 0 0.987784 0.000609489 0 0.987 0.000641611 0 
0.986165 0.000674887 0 0.985277 0.000709249 0 0.984332 0.000744603 0 
0.983327 0.000780822 0 0.982258 0.000817746 0 0.981121 0.000855204 0 
0.979912 0.000893002 0 0.978626 0.000930908 0 0.977259 0.000968645 0 
0.975807 0.00100588 0 0.974263 0.0010422 0 0.972622 0.0010771 0 
0.97088 0.00111001 0 0.969029 0.00114028 0 0.967064 0.0011672 0 
0.964978 0.00118996 0 0.962764 0.00120758 0 0.960415 0.00121879 0 
0.957924 0.00122214 0 0.955283 0.00121637 0 0.952483 0.00120047 0 
0.949517 0.00117309 0 0.946374 0.00113223 0 0.943048 0.00107569 0 
0.939527 0.00100145 0 0.935803 0.000907504 0 0.931866 0.000792042 0 
0.927705 0.000653007 0 0.923311 0.00048771 0 0.918672 0.000291836 0 
0.913778 6.25958e-05 0 0.908619 -0.000202176 0 0.903183 -0.000507268 0 
0.89746 -0.000854219 0 0.891438 -0.00124803 0 0.885108 -0.00169246 0 
0.878458 -0.00219058 0 0.87148 -0.00274605 0 0.864161 -0.00336256 0 
0.856494 -0.00404334 0 0.84847 -0.00479309 0 0.840079 -0.0056133 0 
0.831316 -0.00650877 0 0.822173 -0.00748131 0 0.812644 -0.00853488 0 
0.802725 -0.00967189 0 0.792414 -0.010893 0 0.781707 -0.0122005 0 
0.770606 -0.0135983 0 0.75911 -0.015086 0 0.747224 -0.0166652 0 
0.734952 -0.0183344 0 0.7223 -0.0200902 0 0.709275 -0.0219276 0 
0.69589 -0.0238403 0 0.682154 -0.0258233 0 0.668083 -0.027867 0 
0.653692 -0.029962 0 0.639 -0.0320993 0 0.624027 -0.0342655 0 
0.608793 -0.0364493 0 0.593324 -0.0386364 0 0.577644 -0.0408118 0 
0.561779 -0.0429603 0 0.545759 -0.0450622 0 0.529612 -0.0470986 0 
0.513368 -0.0490467 0 0.497059 -0.050885 0 0.480715 -0.0525856 0 
0.46437 -0.0541271 0 0.448056 -0.0554878 0 0.431807 -0.0566513 0 
0.415657 -0.0576039 0 0.399639 -0.0583372 0 0.383787 -0.0588506 0 
0.368131 -0.0591473 0 0.352704 -0.0592367 0 0.337532 -0.0591353 0 
0.322641 -0.0588619 0 0.308055 -0.0584384 0 0.293794 -0.0578887 0 
0.279877 -0.0572346 0 0.266318 -0.0564944 0 0.25313 -0.0556818 0 
0.240325 -0.0548078 0 0.227913 -0.05388 0 0.215898 -0.0529052 0 
0.204288 -0.0518891 0 0.193084 -0.0508365 0 0.182288 -0.0497512 0 
0.1719 -0.0486397 0 0.161917 -0.0475051 0 0.152337 -0.0463519 0 
0.143154 -0.0451835 0 0.134363 -0.0440034 0 0.125957 -0.0428135 0 
0.117927 -0.0416164 0 0.110267 -0.0404162 0 0.102965 -0.0392141 0 
0.0960136 -0.0380126 0 0.0894009 -0.0368144 0 0.0831171 -0.0356204 0 
0.0771514 -0.034431 0 0.0714931 -0.0332468 0 0.0661312 -0.0320689 0 
0.0610548 -0.0308978 0 0.056253 -0.029734 0 0.0517152 -0.0285773 0 
0.0474306 -0.0274284 0 0.0433889 -0.0262877 0 0.0395799 -0.0251547 0 
0.035994 -0.0240293 0 0.0326212 -0.0229122 0 0.0294525 -0.0218029 0 
0.026479 -0.020701 0 0.0236925 -0.0196061 0 0.0210851 -0.018517 0 
0.0186496 -0.0174324 0 0.016379 -0.0163521 0 0.0142672 -0.0152747 0 
0.0123078 -0.0142 0 0.010498 -0.0131233 0 0.00883229 -0.0120457 0 
0.00730826 -0.0109647 0 0.0059246 -0.00987791 0 0.00468005 -0.00878494 0 
0.00357634 -0.00768396 0 0.0026164 -0.00657467 0 0.00180195 -0.00546037 0 
0.00113852 -0.00434443 0 0.000630111 -0.00323433 0 0.000278275 -0.00214138 0 
7.13323e-05 -0.00108172 0 0 -6.9e-05 0 5.37096e-05 0.000944796 0 
0.000243818 0.00200762 0 0.000579736 0.00310561 0 0.00107293 0.00422258 0 
0.00172527 0.00534511 0 0.00253239 0.00646483 0 0.00348715 0.00757878 0 
0.00458963 0.00868121 0 0.00583611 0.00977234 0 0.00722366 0.0108546 0 
0.00875479 0.0119261 0 0.0104293 0.0129907 0 0.0122503 0.0140492 0 
0.0142217 0.0151027 0 0.0163473 0.0161541 0 0.0186324 0.017205 0 
0.0210832 0.0182564 0 0.0237055 0.0193115 0 0.0265061 0.0203728 0 
0.029493 0.0214409 0 0.0326745 0.0225169 0 0.0360592 0.0236019 0 
0.0396556 0.0246986 0 0.0434731 0.0258087 0 0.0475218 0.0269315 0 
0.0518119 0.0280675 0 0.0563537 0.0292179 0 0.0611582 0.0303811 0 
0.0662365 0.0315564 0 0.0715991 0.0327447 0 0.0772576 0.0339439 0 
0.0832229 0.0351536 0 0.0895058 0.0363733 0 0.0961174 0.0376007 0 
0.103068 0.0388338 0 0.110369 0.0400719 0 0.118028 0.0413122 0 
0.126057 0.0425528 0 0.134462 0.0437913 0 0.143253 0.0450245 0 
0.152436 0.0462481 0 0.162017 0.0474593 0 0.172001 0.0486544 0 
0.182391 0.0498289 0 0.193189 0.0509804 0 0.204396 0.0521053 0 
0.21601 0.0531974 0 0.228029 0.0542559 0 0.240446 0.0552738 0 
0.253256 0.0562468 0 0.266449 0.0571709 0 0.280014 0.0580416 0 
0.293938 0.0588548 0 0.308204 0.0596063 0 0.322795 0.0602904 0 
0.337692 0.0609011 0 0.352871 0.0614333 0 0.36831 0.061885 0 
0.383981 0.0622497 0 0.399857 0.0625256 0 0.415909 0.0627097 0 
0.432105 0.0627979 0 0.448415 0.0627856 0 0.464804 0.062667 0 
0.48124 0.0624355 0 0.497688 0.0620872 0 0.514113 0.0616179 0 
0.530482 0.0610234 0 0.546761 0.0603033 0 0.562916 0.0594599 0 
0.578915 0.0584962 0 0.594728 0.0574219 0 0.610326 0.0562485 0 
0.625682 0.0549905 0 0.640772 0.0536605 0 0.655571 0.0522696 0 
0.67006 0.050829 0 0.684218 0.049347 0 0.69803 0.0478339 0 
0.71148 0.0462971 0 0.724557 0.0447448 0 0.73725 0.0431833 0 
0.749551 0.0416184 0 0.761454 0.040059 0 0.772955 0.0385101 0 
0.784051 0.0369767 0 0.794743 0.0354634 0 0.805031 0.0339748 0 
0.814919 0.0325164 0 0.824409 0.0310896 0 0.833508 0.0296976 0 
0.842222 0.0283437 0 0.850559 0.0270303 0 0.858526 0.0257577 0 
0.866132 0.0245274 0 0.873387 0.0233378 0 0.880301 0.0221922 0 
0.886884 0.0210895 0 0.893146 0.0200286 0 0.8991 0.0190112 0 
0.904756 0.0180344 0 0.910125 0.0170995 0 0.915218 0.0162046 0 
0.920046 0.0153487 0 0.92462 0.0145318 0 0.928952 0.0137527 0 
0.933052 0.01301 0 0.936931 0.0123025 0 0.940597 0.0116292 0 
0.944063 0.010989 0 0.947336 0.0103804 0 0.950428 0.00980248 0 
0.953345 0.00925421 0 0.956099 0.00873437 0 0.958696 0.00824151 0 
0.961144 0.00777434 0 0.963453 0.00733176 0 0.965628 0.00691273 0 
0.967678 0.00651626 0 0.969608 0.00614136 0 0.971426 0.00578707 0 
0.973137 0.0054524 0 0.974748 0.00513628 0 0.976264 0.0048377 0 
0.977691 0.00455571 0 0.979033 0.00428946 0 0.980295 0.00403821 0 
0.981482 0.00380124 0 0.982598 0.00357784 0 0.983647 0.00336732 0 
0.984634 0.00316899 0 0.985561 0.00298216 0 0.986433 0.00280618 0 
0.987252 0.00264045 0 0.988021 0.00248439 0 0.988744 0.00233745 0 
0.989423 0.00219913 0 0.990061 0.00206893 0 0.990661 0.0019464 0 
0.991224 0.0018311 0 0.991752 0.00172264 0 0.992249 0.0016206 0 
0.992715 0.00152464 0 0.993153 0.00143439 0 0.993564 0.00134952 0 
0.99395 0.00126973 0 0.994312 0.00119471 0 0.994653 0.00112417 0 
0.994972 0.00105786 0 0.995272 0.000995526 0 0.995553 0.000936928 0 
0.995817 0.000881849 0 0.996065 0.000830081 0 0.996298 0.000781429 0 
0.996517 0.000735708 0 0.996722 0.000692745 0 0.996914 0.000652377 0 
0.997095 0.000614448 0 0.997264 0.000578815 0 0.997423 0.000545339 0 
0.997549 0.000466195 0 0.997585 0.000322415 0 0.997512 0.000193185 0 

CELLS 324 972
2 6 7 
2 7 8 
2 8 9 
2 9 10 
2 10 11 
2 11 12 
2 12 13 
2 13 14 
2 14 15 
2 15 16 
2 16 17 
2 17 18 
2 18 19 
2 19 20 
2 20 21 
2 21 22 
2 22 23 
2 23 24 
2 24 25 
2 25 26 
2 26 27 
2 27 28 
2 28 29 
2 29 30 
2 30 31 
2 31 32 
2 32 33 
2 33 34 
2 34 35 
2 35 36 
2 36 37 
2 37 38 
2 38 39 
2 39 40 
2 40 41 
2 41 42 
2 42 43 
2 43 44 
2 44 45 
2 45 46 
2 46 47 
2 47 48 
2 48 49 
2 49 50 
2 50 51 
2 51 52 
2 52 53 
2 53 54 
2 54 55 
2 55 56 
2 56 57 
2 57 58 
2 58 59 
2 59 60 
2 60 61 
2 61 62 
2 62 63 
2 63 64 
2 64 65 
2 65 66 
2 66 67 
2 67 68 
2 68 69 
2 69 70 
2 70 71 
2 71 72 
2 72 73 
2 73 74 
2 74 75 
2 75 76 
2 76 77 
2 77 78 
2 78 79 
2 79 80 
2 80 81 
2 81 82 
2 82 83 
2 83 84 
2 84 85 
2 85 86 
2 86 87 
2 87 88 
2 88 89 
2 89 90 
2 90 91 
2 91 92 
2 92 93 
2 93 94 
2 94 95 
2 95 96 
2 96 97 
2 97 98 
2 98 99 
2 99 100 
2 100 101 
2 101 102 
2 102 103 
2 103 104 
2 104 105 
2 105 106 
2 106 107 
2 107 108 
2 108 109 
2 109 110 
2 110 111 
2 111 112 
2 112 113 
2 113 114 
2 114 115 
2 115 116 
2 116 117 
2 117 118 
2 118 119 
2 119 120 
2 120 121 
2 121 122 
2 122 123 
2 123 124 
2 124 125 
2 125 126 
2 126 127 
2 127 128 
2 128 129 
2 129 130 
2 130 131 
2 131 132 
2 132 133 
2 133 134 
2 134 135 
2 135 136 
2 136 137 
2 137 138 
2 138 139 
2 139 140 
2 140 141 
2 141 142 
2 142 143 
2 143 144 
2 144 145 
2 145 146 
2 146 147 
2 147 148 
2 148 149 
2 149 150 
2 150 151 
2 151 152 
2 152 153 
2 153 154 
2 154 155 
2 155 156 
2 156 157 
2 157 158 
2 158 159 
2 159 160 
2 160 161 
2 161 162 
2 162 163 
2 163 164 
2 164 165 
2 165 166 
2 166 167 
2 167 168 
2 168 169 
2 169 170 
2 170 171 
2 171 172 
2 172 173 
2 173 174 
2 174 175 
2 175 176 
2 176 177 
2 177 178 
2 178 179 
2 179 180 
2 180 181 
2 181 182 
2 182 183 
2 183 184 
2 184 185 
2 185 186 
2 186 187 
2 187 188 
2 188 189 
2 189 190 
2 190 191 
2 191 192 
2 192 193 
2 193 194 
2 194 195 
2 195 196 
2 196 197 
2 197 198 
2 198 199 
2 199 200 
2 200 201 
2 201 202 
2 0 1 
2 1 2 
2 2 3 
2 3 4 
2 4 5 
2 5 6 
2 261 262 
2 262 263 
2 263 264 
2 264 265 
2 265 266 
2 266 267 
2 267 268 
2 268 269 
2 269 270 
2 270 271 
2 271 272 
2 272 273 
2 273 274 
2 274 275 
2 275 276 
2 276 277 
2 277 278 
2 278 279 
2 279 280 
2 280 281 
2 281 282 
2 282 283 
2 283 284 
2 284 285 
2 285 286 
2 286 287 
2 287 288 
2 288 289 
2 289 290 
2 290 291 
2 291 292 
2 292 293 
2 293 294 
2 294 295 
2 295 296 
2 296 297 
2 297 298 
2 298 299 
2 299 300 
2 300 301 
2 301 302 
2 302 303 
2 303 304 
2 304 305 
2 305 306 
2 306 307 
2 307 308 
2 308 309 
2 309 310 
2 310 311 
2 311 312 
2 312 313 
2 313 314 
2 314 315 
2 315 316 
2 316 317 
2 317 318 
2 318 319 
2 319 320 
2 320 321 
2 321 322 
2 322 323 
2 323 0 
2 202 203 
2 203 204 
2 204 205 
2 205 206 
2 206 207 
2 207 208 
2 208 209 
2 209 210 
2 210 211 
2 211 212 
2 212 213 
2 213 214 
2 214 215 
2 215 216 
2 216 217 
2 217 218 
2 218 219 
2 219 220 
2 220 221 
2 221 222 
2 222 223 
2 223 224 
2 224 225 
2 225 226 
2 226 227 
2 227 228 
2 228 229 
2 229 230 
2 230 231 
2 231 232 
2 232 233 
2 233 234 
2 234 235 
2 235 236 
2 236 237 
2 237 238 
2 238 239 
2 239 240 
2 240 241 
2 241 242 
2 242 243 
2 243 244 
2 244 245 
2 245 246 
2 246 247 
2 247 248 
2 248 249 
2 249 250 
2 250 251 
2 251 252 
2 252 253 
2 253 254 
2 254 255 
2 255 256 
2 256 257 
2 257 258 
2 258 259 
2 259 260 
2 260 261 

CELL_TYPES 324
3
3
3
3
3
3
3
3
3
3
3
3
3
3
3
3
3
3
3
3
3
3
3
3
3
3
3
3
3
3
3
3
3
3
3
3
3
3
3
3
3
3
3
3
3
3
3
3
3
3
3
3
3
3
3
3
3
3
3
3
3
3
3
3
3
3
3
3
3
3
3
3
3
3
3
3
3
3
3
3
3
3
3
3
3
3
3
3
3
3
3
3
3
3
3
3
3
3
3
3
3
3
3
3
3
3
3
3
3
3
3
3
3
3
3
3
3
3
3
3
3
3
3
3
3
3
3
3
3
3
3
3
3
3
3
3
3
3
3
3
3
3
3
3
3
3
3
3
3
3
3
3
3
3
3
3
3
3
3
3
3
3
3
3
3
3
3
3
3
3
3
3
3
3
3
3
3
3
3
3
3
3
3
3
3
3
3
3
3
3
3
3
3
3
3
3
3
3
3
3
3
3
3
3
3
3
3
3
3
3
3
3
3
3
3
3
3
3
3
3
3
3
3
3
3
3
3
3
3
3
3
3
3
3
3
3
3
3
3
3
3
3
3
3
3
3
3
3
3
3
3
3
3
3
3
3
3
3
3
3
3
3
3
3
3
3
3
3
3
3
3
3
3
3
3
3
3
3
3
3
3
3
3
3
3
3
3
3
3
3
3
3
3
3
3
3
3
3
3
3
3
3
3
3
3
3
3
3
3
3
3
3
3
3
3
3
3
3
3
3
3
3
3
3

POINT_DATA 324
FIELD FieldData 3
Heat_Flux 1 324 float
-612.1 -320.947 -200.066 -148.745 -119.741 -107.557 -98.5765 -90.9514 -84.8025 
-79.8292 -75.773 -72.3494 -69.4064 -66.828 -64.5402 -62.4833 -60.6082 -58.8725 
-57.2493 -55.7198 -54.2683 -52.8819 -51.5504 -50.265 -49.015 -47.7885 -46.5775 
-45.3784 -44.1888 -43.0065 -41.836 -40.6861 -39.5602 -38.4558 -37.3693 -36.2956 
-35.2307 -34.1745 -33.1315 -32.1089 -31.1134 -30.1442 -29.1907 -28.2444 -27.3232 
-26.4708 -25.7063 -24.9955 -24.3001 -23.6308 -23.023 -22.497 -22.055 -21.6762 
-21.3197 -20.9759 -20.7058 -20.5303 -20.418 -20.3846 -20.4091 -20.4921 -20.6692 
-20.9291 -21.2631 -21.6684 -22.1445 -22.7047 -23.3352 -24.0311 -24.7929 -25.6293 
-26.5552 -27.5355 -28.5608 -29.6762 -30.9083 -32.2928 -33.8807 -35.6897 -37.7193 
-39.9707 -42.4918 -45.3147 -48.4493 -51.9559 -55.8743 -60.2586 -65.1991 -70.7913 
-77.2019 -84.5761 -93.0824 -102.957 -114.467 -127.504 -141.788 -156.963 -172.477 
-187.534 -201.215 -212.691 -221.236 -226.447 -228.425 -227.598 -224.674 -220.669 
-216.579 -212.838 -209.642 -207.029 -204.925 -203.215 -201.857 -200.832 -200.458 
-202.553 -213.5 -253.808 -276.177 -293.245 -309.824 -327.569 -347.355 -369.609 
-394.455 -422.636 -454.9 -491.741 -533.601 -581.141 -635.297 -697.092 -767.263 
-846.655 -937.826 -1045.31 -1176.78 -1345.08 -1545.94 -1734.47 -1918.24 -2123.16 
-2355.42 -2627.52 -2944.03 -3336.65 -3822.51 -4402.05 -5066.28 -5773.63 -6479.59 
-7142.45 -7750.8 -8235.33 -8583.04 -8772.06 -8765.45 -8508.51 -7969.06 -7079.33 
-5959.93 -4750.98 -3425.66 -2294.77 -1455.71 -878.694 -495.714 -238.22 -52.3784 
88.1658 178.981 196.903 157.447 94.3246 11.7659 -88.1239 -164.161 -216.853 
-253.911 -278.496 -293.541 -303.983 -313.414 -322.102 -330.769 -339.175 -346.442 
-352.613 -358.717 -366.765 -382.933 -422.003 -425.193 -419.874 -412.945 -405.879 
-399.18 -393.006 -387.15 -381.478 -376.01 -370.628 -365.234 -359.947 -354.86 
-349.882 -345.246 -340.82 -336.308 -331.769 -327.318 -323.228 -319.705 -316.404 
-312.524 -307.895 -303.601 -302.703 -307.992 -315.361 -304.568 -252.798 -174.218 
-118.412 -105.545 -118.613 -139.674 -153.792 -154.175 -145.244 -134.484 -125.963 
-119.842 -114.811 -110.125 -105.691 -101.586 -97.762 -93.8442 -88.5673 -77.6281 
-45.6617 60.4016 112.985 142.366 160.396 172.336 181.08 187.996 193.218 
196.797 199.01 199.968 199.85 198.484 195.852 192.467 188.103 182.988 
177.214 170.71 163.767 156.24 148.215 139.894 131.321 122.509 113.518 
104.425 95.2741 86.0913 76.9373 67.888 58.9826 50.2311 41.6536 33.2859 
25.162 17.3049 9.72261 2.41 -4.6457 -11.453 -18.0067 -24.2864 -30.268 
-35.9355 -41.2863 -46.3332 -51.0998 -55.609 -59.8782 -63.9194 -67.74 -71.3432 
-74.7301 -77.9014 -80.859 -83.6053 -86.1417 -88.4672 -90.5768 -92.4644 -94.132 
-95.6025 -96.9304 -98.1967 -99.46 -100.641 -101.339 -100.63 -96.9992 -88.7979 
-75.9402 -63.5525 -67.6022 -122.149 -293.994 -758.638 -1412.87 -1454.93 -884.817 

Pressure_Coefficient 1 324 float
0.174795 0.164207 0.168894 0.181538 0.187371 0.193003 0.197826 0.20194 0.20567 
0.209051 0.212201 0.215152 0.217958 0.220646 0.223246 0.225777 0.228262 0.230713 
0.23314 0.235554 0.237961 0.24037 0.242785 0.245213 0.24766 0.250131 0.252626 
0.255143 0.257682 0.260238 0.262801 0.265364 0.267929 0.270495 0.27306 0.275625 
0.278185 0.280728 0.28324 0.285706 0.288115 0.290466 0.292758 0.294967 0.29702 
0.298864 0.300538 0.302103 0.303528 0.304736 0.30569 0.30637 0.306787 0.306993 
0.307053 0.306792 0.306094 0.305134 0.303731 0.301961 0.29986 0.297225 0.294137 
0.290576 0.286508 0.281967 0.276827 0.271154 0.264921 0.25809 0.250671 0.2425 
0.2337 0.224311 0.214098 0.203031 0.191018 0.177876 0.163594 0.148175 0.131717 
0.114089 0.0952818 0.0754125 0.0543323 0.0321012 0.0087036 -0.0159358 -0.0417903 -0.0690504 
-0.09767 -0.127596 -0.158748 -0.190946 -0.223455 -0.255267 -0.285398 -0.312622 -0.335649 
-0.353047 -0.363893 -0.367581 -0.363908 -0.353584 -0.337749 -0.317747 -0.295299 -0.272031 
-0.249166 -0.227338 -0.206763 -0.187314 -0.168711 -0.150792 -0.133286 -0.115816 -0.0984153 
-0.0810763 -0.0636586 -0.0462153 -0.0287199 -0.0110136 0.00719564 0.0256728 0.044457 0.0637816 
0.0833312 0.103044 0.123204 0.144031 0.165592 0.187864 0.210932 0.235047 0.26029 
0.286509 0.313958 0.342948 0.373317 0.405093 0.438491 0.473515 0.510317 0.549343 
0.590683 0.634441 0.680078 0.728681 0.780128 0.833386 0.889045 0.945487 1.00124 
1.05401 1.09868 1.12922 1.13762 1.11416 1.05213 0.951271 0.81596 0.656708 
0.477773 0.282188 0.0873076 -0.0892236 -0.241365 -0.374142 -0.48838 -0.580888 -0.658673 
-0.723845 -0.776894 -0.821433 -0.857334 -0.885506 -0.907615 -0.923406 -0.933548 -0.940442 
-0.945113 -0.947185 -0.945987 -0.942043 -0.937199 -0.932195 -0.927133 -0.923145 -0.920611 
-0.918919 -0.918335 -0.918843 -0.920012 -0.922016 -0.924744 -0.927642 -0.930741 -0.934061 
-0.937517 -0.941352 -0.945715 -0.950402 -0.955202 -0.960161 -0.965034 -0.969731 -0.974549 
-0.979222 -0.983879 -0.98871 -0.993349 -0.997732 -1.00188 -1.0059 -1.01008 -1.01448 
-1.0186 -1.02174 -1.02415 -1.02736 -1.03379 -1.04333 -1.04532 -1.01526 -0.927606 
-0.795658 -0.687569 -0.643518 -0.6438 -0.653244 -0.649461 -0.628521 -0.597422 -0.564717 
-0.534442 -0.506274 -0.478894 -0.451978 -0.425713 -0.400277 -0.375699 -0.351845 -0.328661 
-0.305965 -0.283862 -0.262528 -0.241811 -0.221665 -0.202076 -0.183181 -0.164977 -0.147303 
-0.130234 -0.11389 -0.0981717 -0.0830571 -0.0684257 -0.0542762 -0.0408235 -0.0277873 -0.0152967 
-0.00333563 0.00820882 0.0191811 0.0297515 0.0398579 0.0494438 0.0585818 0.0672969 0.0755882 
0.0834544 0.090919 0.0980036 0.104703 0.111017 0.116979 0.122622 0.127959 0.132994 
0.13774 0.142207 0.146408 0.150352 0.154056 0.157539 0.160818 0.163906 0.166811 
0.169539 0.172099 0.1745 0.176749 0.178857 0.180835 0.182691 0.184432 0.186065 
0.187597 0.189033 0.19038 0.19164 0.19282 0.193922 0.194952 0.195911 0.196803 
0.197629 0.198393 0.199095 0.199738 0.200319 0.200838 0.201289 0.201675 0.202014 
0.202301 0.202396 0.20217 0.200416 0.200149 0.218286 0.207795 0.0940526 0.0734109 

Skin_Friction_Coefficient 3 324 float
0.00422962 0.000480702 0 0.00392269 -0.000215582 0 0.0037436 -0.000204558 0 
0.00349705 -0.000189925 0 0.00322724 -0.000174145 0 0.00304494 -0.000163191 0 
0.00291167 -0.000154928 0 0.00280746 -0.000148252 0 0.00272333 -0.00014266 0 
0.00265323 -0.000137819 0 0.00259355 -0.000133528 0 0.00254167 -0.000129641 0 
0.00249585 -0.000126065 0 0.00245479 -0.000122728 0 0.00241756 -0.000119582 0 
0.0023834 -0.000116588 0 0.00235168 -0.000113705 0 0.00232186 -0.000110883 0 
0.00229356 -0.000108084 0 0.00226652 -0.00010529 0 0.0022405 -0.000102484 0 
0.0022153 -9.96546e-05 0 0.00219079 -9.679e-05 0 0.00216681 -9.38801e-05 0 
0.00214321 -9.09126e-05 0 0.0021198 -8.7862e-05 0 0.00209646 -8.46985e-05 0 
0.00207311 -8.14042e-05 0 0.0020497 -7.79668e-05 0 0.00202621 -7.43743e-05 0 
0.00200268 -7.06205e-05 0 0.00197922 -6.67293e-05 0 0.00195586 -6.27338e-05 0 
0.00193259 -5.86419e-05 0 0.00190934 -5.44507e-05 0 0.00188603 -5.01504e-05 0 
0.00186259 -4.57176e-05 0 0.00183901 -4.11331e-05 0 0.00181534 -3.63913e-05 0 
0.00179171 -3.15046e-05 0 0.00176821 -2.65016e-05 0 0.00174483 -2.13981e-05 0 
0.00172142 -1.61655e-05 0 0.00169793 -1.07276e-05 0 0.00167473 -5.03774e-06 0 
0.00165254 7.77795e-07 0 0.00163161 6.49924e-06 0 0.00161144 1.20968e-05 0 
0.0015915 1.77783e-05 0 0.00157203 2.36689e-05 0 0.00155359 2.96739e-05 0 
0.00153659 3.56744e-05 0 0.00152109 4.15766e-05 0 0.0015067 4.73511e-05 0 
0.00149265 5.3097e-05 0 0.00147903 5.91345e-05 0 0.00146692 6.54191e-05 0 
0.0014565 7.1572e-05 0 0.00144764 7.78597e-05 0 0.00144046 8.41671e-05 0 
0.00143462 9.04836e-05 0 0.00143043 9.70748e-05 0 0.00142834 0.000103722 0 
0.00142829 0.000110419 0 0.0014302 0.000117238 0 0.00143398 0.000124141 0 
0.00143979 0.00013126 0 0.00144779 0.00013847 0 0.00145779 0.000145803 0 
0.00146978 0.000153324 0 0.00148376 0.000161003 0 0.00150008 0.000168972 0 
0.00151876 0.000177031 0 0.00153923 0.000185182 0 0.00156165 0.000193731 0 
0.00158676 0.00020262 0 0.00161515 0.000211854 0 0.00164765 0.000221543 0 
0.00168496 0.000231534 0 0.00172719 0.000241708 0 0.00177393 0.00025189 0 
0.00182517 0.000262169 0 0.00188124 0.000272425 0 0.00194197 0.000282386 0 
0.00200749 0.000292142 0 0.00207801 0.000301444 0 0.00215366 0.000310143 0 
0.00223487 0.00031816 0 0.00232213 0.000325209 0 0.00241657 0.000331254 0 
0.00251939 0.000335851 0 0.0026315 0.000338539 0 0.00275388 0.000338771 0 
0.00288738 0.000335841 0 0.00303 0.000328377 0 0.00317891 0.000315287 0 
0.00333113 0.000296015 0 0.00348322 0.000270006 0 0.00363067 0.000237129 0 
0.00376899 0.000197527 0 0.00389241 0.000152269 0 0.00399666 0.000102768 0 
0.00407899 5.06613e-05 0 0.00413672 -1.63019e-06 0 0.00417024 -5.19895e-05 0 
0.00418237 -9.88765e-05 0 0.00417606 -0.000140878 0 0.00415522 -0.000177522 0 
0.00412823 -0.000209488 0 0.00410297 -0.000238203 0 0.00408255 -0.000264909 0 
0.00406729 -0.000290598 0 0.00405622 -0.000315941 0 0.00404872 -0.000341195 0 
0.00404388 -0.000366677 0 0.00403968 -0.000392568 0 0.00403576 -0.000418512 0 
0.00403236 -0.000444622 0 0.00402933 -0.000471214 0 0.00402705 -0.000498268 0 
0.00402442 -0.000525842 0 0.00402117 -0.000554155 0 0.00401745 -0.000583462 0 
0.00401153 -0.000612934 0 0.00400389 -0.00064286 0 0.00399498 -0.000673708 0 
0.00398344 -0.000704714 0 0.00397042 -0.000736467 0 0.00395615 -0.000769756 0 
0.00393966 -0.000804472 0 0.00391956 -0.000840137 0 0.00389508 -0.000876527 0 
0.00386607 -0.000913817 0 0.00383215 -0.000952159 0 0.00379205 -0.000991003 0 
0.00374481 -0.00102974 0 0.0036909 -0.00106896 0 0.00362959 -0.00110849 0 
0.00355963 -0.00114709 0 0.00348235 -0.0011852 0 0.00339947 -0.00122381 0 
0.00330925 -0.00126216 0 0.00321537 -0.00130192 0 0.00312185 -0.0013456 0 
0.00303076 -0.0013942 0 0.00294166 -0.00144835 0 0.00285498 -0.0015092 0 
0.00276776 -0.00157984 0 0.00266705 -0.00165315 0 0.00254091 -0.00171948 0 
0.00237258 -0.00176887 0 0.00213947 -0.00177441 0 0.0018241 -0.00170423 0 
0.00141295 -0.00151334 0 0.000913198 -0.00114438 0 0.000357877 -0.000540064 0 
-0.000183374 0.00034834 0 -0.000596889 0.00152861 0 -0.000762049 0.00293567 0 
-0.000595244 0.00443293 0 -5.06507e-05 0.00582457 0 0.000811979 0.00691571 0 
0.00186266 0.00765144 0 0.00299404 0.00799853 0 0.00399336 0.00780698 0 
0.00474767 0.0072941 0 0.00527699 0.00669003 0 0.00562972 0.00606523 0 
0.00583958 0.00545324 0 0.00598395 0.00493739 0 0.00608457 0.00448997 0 
0.00614996 0.00409811 0 0.00620101 0.00376641 0 0.00622614 0.00346743 0 
0.00623235 0.00320197 0 0.00622324 0.00296615 0 0.00619233 0.00274878 0 
0.00614962 0.00255358 0 0.00610649 0.00238319 0 0.00605968 0.00222948 0 
0.00600219 0.00208634 0 0.00593238 0.0019524 0 0.00585864 0.0018309 0 
0.00579071 0.00172365 0 0.00572478 0.00162501 0 0.00565936 0.001533 0 
0.00559718 0.00144905 0 0.00554434 0.00137243 0 0.00549798 0.00130095 0 
0.0054532 0.0012345 0 0.0054118 0.00117234 0 0.00537253 0.00111343 0 
0.00533395 0.00105797 0 0.00529832 0.00100547 0 0.00526214 0.000954622 0 
0.00522367 0.000905825 0 0.00518472 0.000858947 0 0.00514582 0.000813751 0 
0.00510736 0.000770462 0 0.00507122 0.000728904 0 0.00503744 0.000688574 0 
0.0050043 0.000649342 0 0.00497097 0.000611375 0 0.00493771 0.000574296 0 
0.00490357 0.000538303 0 0.00486934 0.000503715 0 0.00483612 0.000469825 0 
0.00480306 0.000437098 0 0.00477107 0.000405395 0 0.0047404 0.000374096 0 
0.00470878 0.000343543 0 0.00467696 0.000313715 0 0.00464553 0.000284574 0 
0.00461546 0.000256185 0 0.00458814 0.000228262 0 0.00456138 0.000200283 0 
0.00452958 0.000172125 0 0.00449549 0.000144467 0 0.00446228 0.000117101 0 
0.00444267 9.02094e-05 0 0.00445167 6.4129e-05 0 0.00443158 3.74222e-05 0 
0.00423991 9.90935e-06 0 0.0038014 -1.52189e-05 0 0.00322605 -3.4407e-05 0 
0.00274397 -4.83858e-05 0 0.00254942 -6.34062e-05 0 0.00269534 -8.74311e-05 0 
0.00294516 -0.000118592 0 0.00308633 -0.000148774 0 0.00309659 -0.000174031 0 
0.00303028 -0.000194129 0 0.00293514 -0.000210039 0 0.00283591 -0.000222754 0 
0.00275028 -0.000233781 0 0.00267313 -0.000243348 0 0.00259728 -0.000251102 0 
0.00252187 -0.000257284 0 0.00244827 -0.000262165 0 0.00237715 -0.00026594 0 
0.00230809 -0.000268776 0 0.00224013 -0.000270678 0 0.00217246 -0.000271744 0 
0.00210474 -0.000271689 0 0.00203707 -0.00027055 0 0.00197165 -0.000268939 0 
0.00190736 -0.000266711 0 0.00184389 -0.000263828 0 0.0017817 -0.00026025 0 
0.001721 -0.000256238 0 0.00166126 -0.000251893 0 0.00160252 -0.000247029 0 
0.00154554 -0.00024178 0 0.00149033 -0.000236392 0 0.00143633 -0.000230848 0 
0.00138302 -0.000225201 0 0.00133048 -0.000219281 0 0.00127938 -0.000213125 0 
0.00122945 -0.000207073 0 0.00118048 -0.00020082 0 0.00113274 -0.000194575 0 
0.00108601 -0.000188327 0 0.00104052 -0.000181996 0 0.000996138 -0.000175794 0 
0.00095293 -0.000169529 0 0.000911398 -0.000163315 0 0.000871407 -0.000157273 0 
0.000832692 -0.000151354 0 0.000795311 -0.000145539 0 0.000759378 -0.000139853 0 
0.000724868 -0.000134328 0 0.000691756 -0.000128954 0 0.000660182 -0.00012373 0 
0.000630235 -0.0001187 0 0.00060173 -0.000113896 0 0.000574403 -0.000109288 0 
0.000548193 -0.000104837 0 0.000523193 -0.000100538 0 0.000499464 -9.64083e-05 0 
0.000477022 -9.24548e-05 0 0.000455873 -8.86853e-05 0 0.000435981 -8.51074e-05 0 
0.000417225 -8.17239e-05 0 0.000399426 -7.85171e-05 0 0.000382461 -7.54614e-05 0 
0.000366286 -7.25394e-05 0 0.000350936 -6.97421e-05 0 0.000336482 -6.7077e-05 0 
0.000322942 -6.45544e-05 0 0.000310287 -6.21753e-05 0 0.000298463 -5.99391e-05 0 
0.000287381 -5.78392e-05 0 0.000276953 -5.58624e-05 0 0.000267127 -5.39985e-05 0 
0.00025788 -5.22421e-05 0 0.000249192 -5.05899e-05 0 0.000241054 -4.90398e-05 0 
0.000233464 -4.75914e-05 0 0.000226426 -4.6246e-05 0 0.000219948 -4.5006e-05 0 
0.00021404 -4.38746e-05 0 0.000208723 -4.2857e-05 0 0.000204024 -4.19596e-05 0 
0.000199982 -4.11914e-05 0 0.000196645 -4.05633e-05 0 0.000194071 -4.00895e-05 0 
0.000192331 -3.97871e-05 0 0.00019153 -3.96784e-05 0 0.000191826 -3.97967e-05 0 
0.000193438 -4.01881e-05 0 0.00019665 -4.09124e-05 0 0.000201829 -4.2047e-05 0 
0.000209584 -4.37207e-05 0 0.000221281 -4.62203e-05 0 0.000239624 -5.01141e-05 0 
0.000267541 -5.60199e-05 0 0.000302906 -6.34983e-05 0 0.000335741 -7.04599e-05 0 
0.000349532 -7.34324e-05 0 0.000454001 -9.54771e-05 0 0.00114686 -0.000453969 0 
0.00156541 -0.00215738 0 -0.00023689 -0.00177617 0 0.00182039 0.00146581 0 
